     771
 i =      315, E =    -21042.8639362003
 Cd        19.4838271362       25.6156690593       19.4714908556
 Cd        22.5831226707       28.7087282577       19.4243955603
 Cd        25.6147215521       31.7903668761       19.2685844826
 Cd        28.6385118299       34.7813454305       19.0266757726
 Cd        13.0176340683        9.9728155847       16.0342458584
 Cd        34.4497670788       21.7321867174       31.5830873371
 Cd         7.2134315639       13.3283395354       19.0530486656
 Cd        10.2107058737       16.3472561813       19.2899568541
 Cd        13.3004110690       19.4589426272       19.3646219652
 Cd        16.3935325166       22.5309879187       19.4656938066
 Cd        22.5519472794       25.6138114663       22.5297763034
 Cd        25.6233693249       28.7197001848       22.4621981745
 Cd        28.6613937856       31.7906512623       22.2704757630
 Cd        31.5035279916       34.5255337215       21.6437703844
 Cd        22.8845939104       28.7149885473        7.2013252646
 Cd        16.2078795466       13.1717253811       16.2057865233
 Cd         7.4394469797       10.5104342480       21.7273139151
 Cd        10.2335984284       13.3004280935       22.3007848085
 Cd        13.3046979258       16.4268795766       22.3778661535
 Cd        16.3962255072       19.4882540653       22.5009223471
 Cd        19.4607230845       22.5573110236       22.5548002483
 Cd        25.5978659912       25.5561885115       25.5553850539
 Cd        28.6644122769       28.6867729651       25.5023683553
 Cd        31.4694521567       31.5191177362       25.0850203270
 Cd        19.3750879874       16.3295012285       16.2946594255
 Cd        13.1820189010       19.2804760430       13.1514506476
 Cd        10.0941733744       10.5382018362       25.7129919066
 Cd        13.4803619116       13.5025466494       25.3444192532
 Cd        16.4799751951       16.5059841039       25.5136004137
 Cd        19.5131686482       19.4801759535       25.6037346729
 Cd        22.5620313254       22.5326347296       25.6128566298
 Cd        28.6328040316       25.6109748331       28.7555896491
 Cd        31.4958787129       28.3277936753       28.4526237463
 Cd        13.3439724624       34.7781428272       23.0151414232
 Cd        34.5656969436       25.0061586655       28.2966474348
 Cd        22.6308449819       13.3080363572       22.5499704985
 Cd        13.7880084617       10.4794416142       28.1573848800
 Cd        16.6397819665       13.4786038146       28.4780795024
 Cd        19.6131373424       16.4025126427       28.6777982958
 Cd        22.6322901089       19.4285219199       28.6967350200
 Cd        25.6563776363       22.4591155868       28.7036549038
 Cd        31.4189285900       25.2713239390       31.5108721961
 Cd        28.6909391450       13.3174574387       16.4383427449
 Cd        25.7262528633       16.3134001359       22.6115040126
 Cd        31.7606429008       19.3387191356       25.6731711554
 Cd        25.6521674944       19.4619779801       19.4441826163
 Cd        22.2673420231        7.1247311863       16.5049188367
 Cd        25.5046960292       10.2170054953       16.4741720348
 Cd        16.2430812837       10.5193057790       31.8514702148
 Cd        19.6754607003       13.2773855647       31.7436993986
 Cd        22.6968570841       16.3061932379       31.7757436321
 Cd        25.6907392157       19.2971202448       31.7716607742
 Cd        28.7282862204       22.3006981764       31.7892137853
 Cd        22.6200228922       22.6200100217        7.0696660065
 Cd        34.5422584365       28.3089311502       24.9985018716
 Cd        22.9094092150       13.2827648578       34.7753738783
 Cd        25.8361425309       16.1532909566       34.7999690783
 Cd        28.7180521085       19.0538477684       34.7735113577
 Cd        31.5620438987       21.6979323064       34.5118425264
 Cd        22.2978362125       10.2529322629       13.2802930641
 Cd        22.5151924596       19.5074732183       10.1750190126
 Cd        13.1979887425       10.3340129321       22.3916866169
 Cd        28.7164313772       22.9388626235        7.2151591327
 Cd        32.0177740007       28.9785231701       15.9933407896
 Cd        16.3306739529       19.3515172886       10.2226546032
 Cd        18.8734344924       10.0675867995       10.0309774349
 Cd        25.5397065710       13.3781382796       13.2952052859
 Cd        19.5090165864       22.5251079976       10.1731545840
 Cd        13.0398749919       13.0442458109       12.9918352907
 Cd        31.5649447049        7.4875033510       20.3400564625
 Cd        22.5608748892       16.3815924468       19.4430387405
 Cd        25.5271099559       16.4860018436       10.2538490073
 Cd        25.8081061326       16.2066626561       28.8433371970
 Cd        31.7573304339       22.6995164617       16.3034127291
 Cd        28.9533590406       26.0079673711        9.9422587744
 Cd        16.5049978410       10.1848449689       25.4582774910
 Cd        31.7619080024       13.2841912735       19.6906083389
 Cd        34.8782604283       16.5112196785       19.6981205374
 Cd        19.4619908144       19.4460562690       19.4270188443
 Cd        16.1325490133        7.2309710825       16.2228392938
 Cd        13.5527126749        7.4487848980       24.9224333079
 Cd        16.2113777674       16.2374949196       13.1457540447
 Cd        19.0634617171       13.3051521980        7.2217605291
 Cd         9.9385971347       13.0717471035       16.0089381768
 Cd        16.3197907806       16.3373136978       19.3436918324
 Cd        28.8217951426       22.7911517848       13.1485554535
 Cd        25.7685836218        7.2161855503       25.8552076853
 Cd        28.7953578972       28.8517563237       19.1992624822
 Cd        31.7889879393       16.4998530431       16.4728023247
 Cd        28.7157128567       19.4377065374       22.5747664184
 Cd        19.2193110753       13.1939554210       13.1703368915
 Cd        28.7222080108       19.6997551880       10.2008125120
 Cd        16.5089965916       22.3199189558        7.1064177837
 Cd        10.5935517406       25.3361750576       10.4917987838
 Cd        13.5552861160       28.9692749200       10.0969607035
 Cd        16.2365411838       31.4897399435       10.1031318912
 Cd        20.0227211940       34.3700178171       10.3590944133
 Cd        13.1508733525       16.2405143236       16.1885560013
 Cd        22.7341364929       28.8358939314       13.1462069120
 Cd        25.9165972863       32.0669939476       12.9971683175
 Cd        22.5831070749       22.5581200355       19.4360054613
 Cd         7.5574714015       21.8207631663       10.4238565914
 Cd        13.3630425835       25.6723961686       13.2504147085
 Cd        16.5630535111       28.5700222153       13.4627184461
 Cd        19.5544993304       31.7215224711       13.1556779370
 Cd        22.7984148983       34.7322622750       13.1932539557
 Cd         7.2603208769       19.1612176966       13.2711922304
 Cd        10.2595227157       22.3899409767       13.2481975844
 Cd        16.4604340548       25.5352882554       16.4568184757
 Cd        19.5832326672       28.6953018792       16.4046318145
 Cd        22.6118122752       31.7870078928       16.2476325636
 Cd        25.7429225538       34.8012717249       16.1030373079
 Cd        34.8789370132       22.6358259830       19.3782832017
 Cd         7.2052246668       16.2303786234       16.1450693505
 Cd        10.2393800318       19.3640218475       16.2953900162
 Cd        13.3044127849       22.5198244895       16.3201369092
 Cd        19.4268500489       28.6924001066       22.5901143621
 Cd        22.4648739692       31.8148057596       22.4670561650
 Cd        25.4319264992       34.9243650096       22.2327923890
 Cd        34.8695225790       22.3163191022       25.4968448804
 Cd         7.1119886321       16.5152177082       22.2804849133
 Cd        10.1951806602       19.5202540385       22.4728473581
 Cd        13.3038640360       22.5507086229       22.6191794633
 Cd        16.3261406058       25.6662596189       22.6481988409
 Cd        22.4162626391       28.6760966572       25.5995662200
 Cd        25.4603754156       31.8251649550       25.4969676760
 Cd        28.1776925870       34.6243212654       24.9613631341
 Cd        28.7179119416       22.4932454291       25.6655661676
 Cd         9.9782117122       10.0456689266       18.8954647006
 Cd         7.3407434086       13.7305079353       25.0404320330
 Cd        10.2426866055       16.4848425959       25.5042714034
 Cd        13.2986020690       19.4870021939       25.6631999856
 Cd        16.3197532789       22.5865950029       25.6964311026
 Cd        19.3701355972       25.6591158530       25.6931503898
 Cd        25.4193812833       28.5378327207       28.5466324027
 Cd        28.2751769276       31.5885626245       28.2214325480
 Cd        25.5981531073       16.4117989581       16.4013396614
 Cd        19.5956705909       10.3211001449       28.7733011089
 Cd        10.1165480139       13.1183720548       28.4654672771
 Cd        13.2704715133       16.2489983157       28.7150694365
 Cd        16.3401789322       19.4735110262       28.7016743714
 Cd        19.4062601616       22.5320586062       28.7052103608
 Cd        22.4232610538       25.5780157048       28.7000166231
 Cd        28.3953126184       28.8915161610       31.9811158876
 Cd        34.7884778559       25.8409861612       16.1528277855
 Cd        25.6635856564       13.2929452212       19.5193802546
 Cd        32.0446112245       26.0025837817       13.0187068777
 Cd        13.4811951324       13.0918743547       31.8243039939
 Cd        16.4694091596       16.4375197233       31.7355128842
 Cd        19.5046117901       19.4613523715       31.8009724476
 Cd        22.5065101920       22.4704408096       31.8184753419
 Cd        25.5080633197       25.5044845354       31.7892014457
 Cd        31.7596667291       25.5253230314       25.5175186465
 Cd        22.5875815332        7.1169406984       22.6125063110
 Cd        25.6687268956       10.2293509598       22.7008677677
 Cd        16.9025481117       13.6972434223       34.6203823517
 Cd        19.6834145087       16.4563818538       34.8817479679
 Cd        22.6041115886       19.3555264627       34.8980812273
 Cd        25.5021556909       22.2648245640       34.8955044191
 Cd        28.2445272492       25.0163205821       34.6190860072
 Cd         7.5003530110       31.5775629254       20.4205600857
 Cd        31.9790347897       18.8810265166       31.9788236216
 Cd         7.2369708173       28.7048357460       22.9864264820
 Cd        10.0896336512       31.9469752287       23.1570032928
 Cd        28.6313195040       16.4697658448       13.2949089308
 Cd        31.7517479845       19.6977076411       13.2626849609
 Cd        25.6334826705       19.5794456433       13.2933530474
 Cd        25.9491679760        9.9479954147       28.9707563292
 Cd        25.5141075925       19.6905530903        7.1036280205
 Cd        16.4209236141       13.3410607436       22.3900453790
 Cd        34.7577920163       22.9252118330       13.2876105503
 Cd        25.8287230052       25.8472833334        7.1666304616
 Cd        32.0605785373       16.0143217990       28.9624238100
 Cd        34.8623230361       25.5182241117       22.2936443727
 Cd        31.9126109435       31.9898994344       18.8550792135
 Cd        16.2425063652       34.7792944094       25.9167837003
 Cd        22.3100917999       16.4941982714        7.1168173614
 Cd        25.4912523061        7.1232125350       19.7043912808
 Cd        28.7144372014       10.2318454883       19.7010543230
 Cd        34.7634121362       13.3035692377       22.9191434715
 Cd        28.8466816845       19.2257566449       28.8350704901
 Cd        29.0057612240       13.0224687183       28.9629248782
 Cd        28.8362854594       13.1730440577       22.7768829610
 Cd        34.7879323368       16.2138287103       25.8108162704
 Cd        25.6777372832       22.7036171907       10.2004952713
 Cd        28.7049086951       22.5996486306       19.3868273982
 Cd        31.9626542439       23.1257840413       10.0158768536
 Cd        13.0407144774       16.0712124023        9.9452078114
 Cd        17.0419118936        7.4485881679       28.3905910583
 Cd        31.7532169075       25.6955821182       19.2874475728
 Cd        34.8783228861       19.7234092220       16.4993805111
 Cd        10.5036377339       28.9428461776       13.2284556472
 Cd        13.1238985166       31.5755589761       13.3800232328
 Cd        16.8157928412       34.4587448059       13.5376939931
 Cd        31.7949329319       19.5180064297       19.4907928464
 Cd        22.5584188879       19.4641378029       16.3663160720
 Cd         7.5389937602       25.2371368621       13.6970730171
 Cd        13.4559812771       28.5581556140       16.6508814375
 Cd        16.3955662303       31.7521263326       16.4112399161
 Cd        19.5963302082       34.8436787406       16.3939209677
 Cd        28.9518346108        9.9442348513       26.0027017926
 Cd         7.1578794415       22.4020568197       16.4543319786
 Cd        10.3056563648       25.6188600919       16.4039929983
 Cd        16.4092898802       28.6953256667       19.5967371056
 Cd        19.4496715947       31.8167145792       19.4585595678
 Cd        22.5217389639       34.8957838986       19.3268202360
 Cd         7.1183882159       19.4486988583       19.3583416542
 Cd        10.2093462978       22.5562231863       19.4556224301
 Cd        13.3108532907       25.5939301071       19.6121129818
 Cd        19.3653947764       31.7603707635       25.7456146115
 Cd        22.2903992607       34.8635350165       25.5309320389
 Cd        31.7856884029       22.5222198571       22.4888244594
 Cd         7.1299846730       19.6969051867       25.4744025585
 Cd        10.2452002853       22.6510926409       25.6880825941
 Cd        13.1830072208       25.7637984163       25.8184032697
 Cd        16.2395599514       28.8190069982       25.8222228103
 Cd        22.4057215423       31.6662433769       28.8139654949
 Cd        24.8612760859       34.5898271422       28.4735764580
 Cd        22.4398086749       16.3961851047       13.2945699293
 Cd        19.4998414316       22.5305874768       16.3787322371
 Cd        22.6704953682       25.6885024922       10.1835616813
 Cd         7.4165724323       16.9507000391       28.2357470771
 Cd        10.2580375913       19.6154876938       28.7215699710
 Cd        13.1806194913       22.7217991992       28.8427365554
 Cd        16.2286745493       25.7509573176       28.8663600444
 Cd        19.2532404784       28.7890186003       28.8557899137
 Cd        25.7431487436       31.4895432642       31.9017635293
 Cd        21.7230875855       10.4738641794        7.5202390623
 Cd        25.1010789840       13.7556254130        7.4041999131
 Cd        10.5309397707       16.5581878429       31.4273519643
 Cd        13.2720459031       19.6036850236       31.7372724984
 Cd        16.3280717225       22.6265218782       31.7697841105
 Cd        19.3361378965       25.6231724190       31.8074694679
 Cd        22.3428725183       28.6849704025       31.7750468968
 Cd        28.2659089523       16.9023567613        7.3983171211
 Cd        31.5626247099       20.2752836062        7.5082001385
 Cd        22.7781718250       13.1811181172       28.8142827170
 Cd        13.7102254978       16.9071244702       34.5467959058
 Cd        16.4962011896       19.6249353823       34.8682979206
 Cd        19.3938503782       22.5480734875       34.9117715610
 Cd        22.3139226421       25.4543691726       34.9331798957
 Cd        25.0164080384       28.2728364166       34.7079406808
 Cd        13.2116587241        7.3026544985       19.1667507409
 Cd        19.4172704470       19.4187722516        7.0981632419
 Cd        32.0639910417       13.0425751945       25.9901892052
 Cd        19.5830775335       25.6158950108       13.2963066336
 Cd        22.6432751811       25.6920210321       16.3088328803
 Cd        19.0466203671        7.2615541973       13.3070695286
 Cd        25.6929951286       25.7104588177       19.3630790743
 Cd        16.2711349623       10.2467262053       19.3511686930
 Cd        25.2091018710       10.5281639728       10.5237989564
 Cd        28.7070409482       25.6608805009       22.4347260922
 Cd         9.9490572931       16.0769744967       13.0320234192
 Cd        19.3637955173        7.1221534075       19.4022026786
 Cd        28.8774859357       13.1255920141        9.8490403618
 Cd        31.4807845796       16.7854946255       10.5156768580
 Cd        25.7980181119       13.1485404260       25.7827551118
 Cd        25.6997648333       22.6405852974       16.3055228346
 Cd        20.0395528467        7.6766471249       31.5993070496
 Cd        28.8642500548       16.2154590874       25.7858802435
 Cd        19.6947229486        7.1361407980       25.5188696139
 Cd        19.2898811239       10.2430301255       16.3325749478
 Cd        19.5085394514       16.3968103473       22.4957365456
 Cd        34.4728452889       31.6052144981       21.5872655995
 Cd        19.6884866640       25.5131389936        7.0625299292
 Cd        34.7434382807       19.1174857028       28.7050462730
 Cd        25.7611483474       28.8656663067       16.1811340477
 Cd        23.0679736795       10.0160056906       32.0032830640
 Cd        21.6389568311        7.5293509622       10.4176491110
 Cd        23.0438795870       31.9941116267        9.9572466486
 Cd        28.2933705916       10.4425946888       13.5493181025
 Cd        31.5624734567       13.7065520392       13.5495397078
 Cd        34.6065683133       17.0471555410       13.7013878829
 Cd        34.8796582220       19.4267946312       22.5859941878
 Cd        25.9706793164       13.0299161012       32.0512069441
 Cd        28.9707777684       15.9998227591       32.0415447014
 Cd        10.5194108533       31.5209600281       17.0408075455
 Cd        13.7664968761       34.5561910509       16.8813225612
 Cd        28.8384585942       25.8105681163       16.1807328934
 Cd        28.7158831281       19.5410459503       16.3332500186
 Cd        22.3066638280       13.2916084039       10.2187512344
 Cd        31.7501652062       28.7419304629       22.2641330316
 Cd        22.6449651417       10.2349192139       25.7039985413
 Cd         7.5462876157       28.3145672335       16.8285225187
 Cd        13.3174697802       31.7954076562       19.7576826455
 Cd        16.4927267524       34.8727860107       19.6923548894
 Cd        22.6043271247       19.4434132959       22.5466330410
 Cd        22.4752301696       13.2978504956       16.3333389286
 Cd        28.6858768354        7.2327714924       22.9486437275
 Cd        31.9610350284       10.0320118318       23.1268458066
 Cd        16.0000031485       13.0692811870        9.9435195525
 Cd         7.1612327639       25.5606401374       19.6523198961
 Cd        10.2334701472       28.7217060893       19.7564822745
 Cd        16.3554087162       31.7698041565       22.7372561788
 Cd        19.3820163026       34.8838267300       22.6259060726
 Cd        28.9090246913       32.0577965940       15.9777614943
 Cd        13.2972680653       22.3718421296       10.2251114421
 Cd         7.1267796616       22.6346298106       22.5728503360
 Cd        10.2413995237       25.6720845842       22.7212656928
 Cd        13.2060264772       28.8087850061       22.8016331116
 Cd        19.1938847682       34.6951547764       28.8103439551
 Cd        24.9476138510        7.3987484244       13.7036298300
 Cd        31.4824670835       10.5071348286       16.8107434246
 Cd        34.5968847239       13.7151820007       16.9923216144
 Cd        16.4873143637       25.5569242207       10.2085234690
 Cd         7.2736489300       22.8563936148       28.7201067810
 Cd         9.9784051368       25.9273776964       28.9765434034
 Cd        13.0451901166       28.9464773415       29.0302346187
 Cd        16.0776976099       32.0148183409       29.0192657133
 Cd        21.9097444769       34.3033611374       31.6746393894
 Cd        31.7388012064       22.3435130372       28.7303090580
 Cd        22.8165816428        7.2894587936       28.7668845126
 Cd         7.5514916034       20.1833403268       31.5586330434
 Cd        10.0328194911       23.0515076465       31.9851260767
 Cd        13.0517833687       25.9188020720       32.0742461178
 Cd        16.0664274419       28.8852528827       32.0839250635
 Cd        18.9293654277       31.9328559797       32.0590682450
 Cd        16.4502263456        7.1368009574       22.2899782608
 Cd        10.4673468901       21.7706483407        7.5153560706
 Cd        10.4308371915       20.1746075406       34.4463507364
 Cd        13.2942865437       22.8181689422       34.7518609895
 Cd        16.1785835501       25.7493929180       34.8242448794
 Cd        19.1173948676       28.6324185633       34.8014089830
 Cd        13.7801571597       25.0873231811        7.3883854277
 Cd        19.4251383925       19.4434110112       13.2846049091
 Cd         7.2232403225       25.7915238593       25.8604578767
 Cd        13.1634962983       13.2022990997       19.2110333684
 Cd        28.2791227600        7.4054097094       16.9894830341
 Cd        34.4852125236       10.4236855073       20.3331108979
 Cd        19.6525315609       28.7108194683       10.2304147140
 Cd         9.9865322102       28.9313944954       26.0130088877
 Cd        13.0983705344       32.0207531848       26.0302256719
 Cd        19.5122396735       10.2154235157       22.4716852299
 Cd        13.2943700804       19.1220437306        7.2292335657
 Cd        25.6515778616       22.5360555591       22.5176392747
 Cd        34.7462313961       28.7179900169       19.0443450460
 Cd        22.5995538383       22.5864260869       13.2864967260
 Cd        28.9885695153       28.9746279963       13.0159007710
 Cd        15.9991571442        9.9711472669       13.0457138026
 Cd        19.3099637661       16.3408554199       10.2238266471
 Cd        10.0363584370       18.9468790236       10.0176891819
 Cd        16.3820844648       22.4881255285       13.2866328031
 Cd        16.3204300262       19.4024608378       16.2904771095
 Cd        19.4431738004       13.3139401230       19.3743002737
 Cd        19.6037154239       13.3265220791       25.5584567178
 Cd        22.6648998152       16.3218472576       25.6709729289
 Cd        25.7278642494       19.3770179170       25.6827688806
 Cd        28.7187554677       16.3666630291       19.5262629977
 Cd        16.1779906951       16.2195839235        7.2037371883
 Cd        16.9440442409       28.2914284761        7.3015194941
 Cd        25.7719678598       25.8014251870       13.1301050398
 Cd        22.5015756509       10.2065595592       19.4896504875
 Cd        31.7672683793       16.3338228077       22.6807716865
 Cd        25.9266285145       28.9611122860        9.9252038892
 Cd        34.5000505919       20.3416309611       10.4096276252
 Cd        20.1949258286       31.5177684868        7.4576187058
 Cd        10.3592872168        7.6965632204       21.9131037744
 Cd        21.7585282468       31.4809835849       34.5789628866
 Cd        20.2167500045       10.4858212463       34.5312826910
 Cd        10.4896127781       34.5259665389       20.4104263601
 Se        30.1786529834       14.8165273038       11.6424376725
 Se        11.5093853412       17.6250539100        8.3131885554
 Se        11.4980715701       14.6133174662       11.4934041216
 Se        33.4733713339       30.3959763769       23.8683292323
 Se        30.4289483167       21.2052265851       11.5501172022
 Se        11.7065455247       33.5379500959       18.1651170169
 Se        17.9479643683       24.0794597163       14.7921341936
 Se        27.3407214601       11.5580570904       24.2534570201
 Se        21.0281966024       20.9993976710       14.7906693765
 Se         8.3280549024       17.6405067966       11.4972385754
 Se        14.7939489121       17.9419260206       24.0409204586
 Se        30.3428475468       14.7798608505       17.9290732018
 Se        24.1390124928       11.6904183372       21.0046371775
 Se        30.3003715210       24.1240396881       20.9469824040
 Se        17.8933435140       21.0242045794       24.1203426608
 Se        17.8505973005        8.7726739829       30.4601321040
 Se        17.9875264778        8.5566455111       23.9906681830
 Se        14.8262080939       20.9361764945        8.5997188980
 Se        17.8896125570       17.8791559480       20.9486430828
 Se        20.9895602244       11.7003237019       17.8652833575
 Se        24.2251693281       30.4426245012       14.6463495001
 Se        11.5581703092       33.6547758293       24.4855156249
 Se        30.4396621890       11.5633652012       21.1920827380
 Se        20.9925429695       24.1254812698       24.1301256054
 Se        17.7776511972       30.4058836038       27.3611767571
 Se        14.5619826106       27.3944747537       33.6991153515
 Se        24.1808894818       27.2893574148       17.8196112497
 Se        11.4900266714        8.7841315841       24.1152203789
 Se        30.4529228218       17.7493140167       27.3237359156
 Se        30.3008160693       20.9997835067       24.1113190645
 Se        14.6931993353       27.3082351078       27.3627509065
 Se         8.3020913736       11.5426584759       17.5582101018
 Se        17.6114298313       30.4186950844       33.7296718944
 Se        27.1847462476       21.1109490670        8.5778320790
 Se        24.0436243289        8.5659862025       17.9446118069
 Se        17.8897703783       20.9766228979       17.8628261872
 Se        17.9197083148       30.3156044701       21.0665367231
 Se        17.9479936461       14.8204399548       24.0468646550
 Se        11.5816360403       20.8565859419       11.5491021609
 Se        30.3096525361       17.9024521735       21.0215842778
 Se        14.6726307495       14.6890515897       14.6595493404
 Se        27.1943599686       14.8160303568       14.8172660402
 Se        17.8258577063        8.6228187575       17.8795659698
 Se        27.2919067223       30.4571762700       17.7216892855
 Se        27.2012632222       27.1507976428       27.1227895447
 Se        11.5779965509       17.7879703281       14.6529706467
 Se        30.3431029102       18.0471796699        8.5241257357
 Se        14.5583315898       11.4922010338       11.4694776049
 Se        17.9300213937       27.2103789324       17.9341888051
 Se        21.0771100127       11.7039802913       24.0523795893
 Se        24.1149165150       14.7724547328       17.8879078466
 Se        21.0464052435       30.3218372711       17.9128701528
 Se        24.0520364956       24.0135064791       33.4463834324
 Se        21.0078935893        8.5644111664       20.9798799312
 Se        27.2514320687       24.0912923570       24.0700166285
 Se        14.7534996395       27.2572857582       21.1195905627
 Se        14.8823865269       11.7178166630       23.9747346175
 Se        21.2108534419       11.5871791617       30.4218447841
 Se        24.0797037136       33.4144054069       17.8000077057
 Se        27.2053678065       17.9981788313       11.6725741041
 Se        27.0819004321       27.0987351926       33.4815031800
 Se        11.7106109207       17.8719682815       27.2514136436
 Se         8.5810788052       17.9530150309       30.3469949513
 Se        24.1577927890       24.1346031769       20.9634432619
 Se        33.6497127267       20.5399028315       33.6650501900
 Se        21.3613190814        8.4017858081       33.6456055040
 Se        27.0765449330       30.1397259659       30.0120306699
 Se        14.8628666211       27.1178621203       14.9104355994
 Se         8.5871790813       17.9617222547       24.0212059124
 Se        33.5136739466       14.8839376993       14.8486520746
 Se        24.2720252133       14.6733074336       30.4244697327
 Se        24.1552786776       24.1597344117        8.5583013318
 Se        14.8534238205       14.8385530479       33.3730483425
 Se        27.2266647120       21.0051742780       20.9761808464
 Se        24.2588013807       11.5673677728       27.3142498589
 Se        11.6175851207       17.9410001666       33.3855134204
 Se        27.1934578668       20.8814301573       33.4087617509
 Se        17.9918474166       27.1720567938       11.7102756810
 Se        24.2177199345       17.8271964679       27.2611685616
 Se        17.9105700495       20.9954636333       11.6857819140
 Se         8.4983975333       30.3546687939       18.1722488367
 Se        14.8567703994       33.4175310961       21.1721766706
 Se        20.9173888408       14.7365671094       14.7186428989
 Se        30.4329120717       24.2727987424       14.6530549462
 Se         8.6319142004       24.1446720613       17.8884332717
 Se        21.0239478555       21.0192073558        8.5477845649
 Se        20.6075077030       33.5708216367       33.7243407898
 Se        14.8180760696       21.0124890588       33.3702372361
 Se        30.4873841237        8.3160151553       24.4244791418
 Se        18.0004870992       30.3023535423       14.8530102870
 Se        24.0697455900       17.9420491415        8.5658134529
 Se         8.5845531910       21.0437056824       20.9621760886
 Se        30.4886384662       24.4403363366        8.3145565937
 Se        11.5539180806       11.6042325971       20.7726701147
 Se        11.5683073289       21.1453446907       30.4332824663
 Se         8.6044252580       24.0630986705       11.6153290192
 Se        33.4133627619       24.0650019281       24.0440068774
 Se        30.3345840100       30.3359203672       27.1470684517
 Se        11.6980973879       14.8710037803       23.9485641002
 Se        30.3456211582       23.9435356091       33.4941477176